1
Step 0
X 1.600002e-01 1.600000e-01 1.600000e-01
1
Step 1
X 1.600003e-01 1.600000e-01 1.600000e-01
1
Step 2
X 1.600005e-01 1.600000e-01 1.600000e-01
1
Step 3
X 1.600007e-01 1.600000e-01 1.600000e-01
1
Step 4
X 1.600008e-01 1.600000e-01 1.600000e-01
1
Step 5
X 1.600010e-01 1.600000e-01 1.600000e-01
1
Step 6
X 1.600012e-01 1.600000e-01 1.600000e-01
1
Step 7
X 1.600013e-01 1.600000e-01 1.600000e-01
1
Step 8
X 1.600015e-01 1.600000e-01 1.600000e-01
1
Step 9
X 1.600017e-01 1.600000e-01 1.600000e-01
1
Step 10
X 1.600018e-01 1.600000e-01 1.600000e-01
1
Step 11
X 1.600020e-01 1.600000e-01 1.600000e-01
1
Step 12
X 1.600022e-01 1.600000e-01 1.600000e-01
1
Step 13
X 1.600023e-01 1.600000e-01 1.600000e-01
1
Step 14
X 1.600025e-01 1.600000e-01 1.600000e-01
1
Step 15
X 1.600027e-01 1.600000e-01 1.600000e-01
1
Step 16
X 1.600028e-01 1.600000e-01 1.600000e-01
1
Step 17
X 1.600030e-01 1.600000e-01 1.600000e-01
1
Step 18
X 1.600032e-01 1.600000e-01 1.600000e-01
1
Step 19
X 1.600033e-01 1.600000e-01 1.600000e-01
1
Step 20
X 1.600035e-01 1.600000e-01 1.600000e-01
1
Step 21
X 1.600037e-01 1.600000e-01 1.600000e-01
1
Step 22
X 1.600038e-01 1.600000e-01 1.600000e-01
1
Step 23
X 1.600040e-01 1.600000e-01 1.600000e-01
1
Step 24
X 1.600042e-01 1.600000e-01 1.600000e-01
1
Step 25
X 1.600043e-01 1.600000e-01 1.600000e-01
1
Step 26
X 1.600045e-01 1.600000e-01 1.600000e-01
1
Step 27
X 1.600047e-01 1.600000e-01 1.600000e-01
1
Step 28
X 1.600048e-01 1.600000e-01 1.600000e-01
1
Step 29
X 1.600050e-01 1.600000e-01 1.600000e-01
1
Step 30
X 1.600052e-01 1.600000e-01 1.600000e-01
1
Step 31
X 1.600053e-01 1.600000e-01 1.600000e-01
1
Step 32
X 1.600055e-01 1.600000e-01 1.600000e-01
1
Step 33
X 1.600057e-01 1.600000e-01 1.600000e-01
1
Step 34
X 1.600058e-01 1.600000e-01 1.600000e-01
1
Step 35
X 1.600060e-01 1.600000e-01 1.600000e-01
1
Step 36
X 1.600062e-01 1.600000e-01 1.600000e-01
1
Step 37
X 1.600063e-01 1.600000e-01 1.600000e-01
1
Step 38
X 1.600065e-01 1.600000e-01 1.600000e-01
1
Step 39
X 1.600067e-01 1.600000e-01 1.600000e-01
1
Step 40
X 1.600068e-01 1.600000e-01 1.600000e-01
1
Step 41
X 1.600070e-01 1.600000e-01 1.600000e-01
1
Step 42
X 1.600072e-01 1.600000e-01 1.600000e-01
1
Step 43
X 1.600073e-01 1.600000e-01 1.600000e-01
1
Step 44
X 1.600075e-01 1.600000e-01 1.600000e-01
1
Step 45
X 1.600077e-01 1.600000e-01 1.600000e-01
1
Step 46
X 1.600078e-01 1.600000e-01 1.600000e-01
1
Step 47
X 1.600080e-01 1.600000e-01 1.600000e-01
1
Step 48
X 1.600082e-01 1.600000e-01 1.600000e-01
1
Step 49
X 1.600083e-01 1.600000e-01 1.600000e-01
1
Step 50
X 1.600085e-01 1.600000e-01 1.600000e-01
1
Step 51
X 1.600087e-01 1.600000e-01 1.600000e-01
1
Step 52
X 1.600088e-01 1.600000e-01 1.600000e-01
1
Step 53
X 1.600090e-01 1.600000e-01 1.600000e-01
1
Step 54
X 1.600092e-01 1.600000e-01 1.600000e-01
1
Step 55
X 1.600093e-01 1.600000e-01 1.600000e-01
1
Step 56
X 1.600095e-01 1.600000e-01 1.600000e-01
1
Step 57
X 1.600097e-01 1.600000e-01 1.600000e-01
1
Step 58
X 1.600098e-01 1.600000e-01 1.600000e-01
1
Step 59
X 1.600100e-01 1.600000e-01 1.600000e-01
1
Step 60
X 1.600102e-01 1.600000e-01 1.600000e-01
1
Step 61
X 1.600103e-01 1.600000e-01 1.600000e-01
1
Step 62
X 1.600105e-01 1.600000e-01 1.600000e-01
1
Step 63
X 1.600107e-01 1.600000e-01 1.600000e-01
1
Step 64
X 1.600108e-01 1.600000e-01 1.600000e-01
1
Step 65
X 1.600110e-01 1.600000e-01 1.600000e-01
1
Step 66
X 1.600112e-01 1.600000e-01 1.600000e-01
1
Step 67
X 1.600113e-01 1.600000e-01 1.600000e-01
1
Step 68
X 1.600115e-01 1.600000e-01 1.600000e-01
1
Step 69
X 1.600117e-01 1.600000e-01 1.600000e-01
1
Step 70
X 1.600118e-01 1.600000e-01 1.600000e-01
1
Step 71
X 1.600120e-01 1.600000e-01 1.600000e-01
1
Step 72
X 1.600122e-01 1.600000e-01 1.600000e-01
1
Step 73
X 1.600123e-01 1.600000e-01 1.600000e-01
1
Step 74
X 1.600125e-01 1.600000e-01 1.600000e-01
1
Step 75
X 1.600127e-01 1.600000e-01 1.600000e-01
1
Step 76
X 1.600128e-01 1.600000e-01 1.600000e-01
1
Step 77
X 1.600130e-01 1.600000e-01 1.600000e-01
1
Step 78
X 1.600132e-01 1.600000e-01 1.600000e-01
1
Step 79
X 1.600133e-01 1.600000e-01 1.600000e-01
1
Step 80
X 1.600135e-01 1.600000e-01 1.600000e-01
1
Step 81
X 1.600137e-01 1.600000e-01 1.600000e-01
1
Step 82
X 1.600138e-01 1.600000e-01 1.600000e-01
1
Step 83
X 1.600140e-01 1.600000e-01 1.600000e-01
1
Step 84
X 1.600142e-01 1.600000e-01 1.600000e-01
1
Step 85
X 1.600143e-01 1.600000e-01 1.600000e-01
1
Step 86
X 1.600145e-01 1.600000e-01 1.600000e-01
1
Step 87
X 1.600147e-01 1.600000e-01 1.600000e-01
1
Step 88
X 1.600148e-01 1.600000e-01 1.600000e-01
1
Step 89
X 1.600150e-01 1.600000e-01 1.600000e-01
1
Step 90
X 1.600152e-01 1.600000e-01 1.600000e-01
1
Step 91
X 1.600153e-01 1.600000e-01 1.600000e-01
1
Step 92
X 1.600155e-01 1.600000e-01 1.600000e-01
1
Step 93
X 1.600157e-01 1.600000e-01 1.600000e-01
1
Step 94
X 1.600158e-01 1.600000e-01 1.600000e-01
1
Step 95
X 1.600160e-01 1.600000e-01 1.600000e-01
1
Step 96
X 1.600162e-01 1.600000e-01 1.600000e-01
1
Step 97
X 1.600163e-01 1.600000e-01 1.600000e-01
1
Step 98
X 1.600165e-01 1.600000e-01 1.600000e-01
1
Step 99
X 1.600167e-01 1.600000e-01 1.600000e-01
1
Step 100
X 1.600168e-01 1.600000e-01 1.600000e-01
1
Step 101
X 1.600170e-01 1.600000e-01 1.600000e-01
1
Step 102
X 1.600172e-01 1.600000e-01 1.600000e-01
1
Step 103
X 1.600173e-01 1.600000e-01 1.600000e-01
1
Step 104
X 1.600175e-01 1.600000e-01 1.600000e-01
1
Step 105
X 1.600177e-01 1.600000e-01 1.600000e-01
1
Step 106
X 1.600178e-01 1.600000e-01 1.600000e-01
1
Step 107
X 1.600180e-01 1.600000e-01 1.600000e-01
1
Step 108
X 1.600182e-01 1.600000e-01 1.600000e-01
1
Step 109
X 1.600183e-01 1.600000e-01 1.600000e-01
1
Step 110
X 1.600185e-01 1.600000e-01 1.600000e-01
1
Step 111
X 1.600187e-01 1.600000e-01 1.600000e-01
1
Step 112
X 1.600188e-01 1.600000e-01 1.600000e-01
1
Step 113
X 1.600190e-01 1.600000e-01 1.600000e-01
1
Step 114
X 1.600192e-01 1.600000e-01 1.600000e-01
1
Step 115
X 1.600193e-01 1.600000e-01 1.600000e-01
1
Step 116
X 1.600195e-01 1.600000e-01 1.600000e-01
1
Step 117
X 1.600197e-01 1.600000e-01 1.600000e-01
1
Step 118
X 1.600198e-01 1.600000e-01 1.600000e-01
1
Step 119
X 1.600200e-01 1.600000e-01 1.600000e-01
1
Step 120
X 1.600202e-01 1.600000e-01 1.600000e-01
1
Step 121
X 1.600203e-01 1.600000e-01 1.600000e-01
1
Step 122
X 1.600205e-01 1.600000e-01 1.600000e-01
1
Step 123
X 1.600207e-01 1.600000e-01 1.600000e-01
1
Step 124
X 1.600208e-01 1.600000e-01 1.600000e-01
1
Step 125
X 1.600210e-01 1.600000e-01 1.600000e-01
1
Step 126
X 1.600212e-01 1.600000e-01 1.600000e-01
1
Step 127
X 1.600213e-01 1.600000e-01 1.600000e-01
1
Step 128
X 1.600215e-01 1.600000e-01 1.600000e-01
1
Step 129
X 1.600217e-01 1.600000e-01 1.600000e-01
1
Step 130
X 1.600218e-01 1.600000e-01 1.600000e-01
1
Step 131
X 1.600220e-01 1.600000e-01 1.600000e-01
1
Step 132
X 1.600222e-01 1.600000e-01 1.600000e-01
1
Step 133
X 1.600223e-01 1.600000e-01 1.600000e-01
1
Step 134
X 1.600225e-01 1.600000e-01 1.600000e-01
1
Step 135
X 1.600227e-01 1.600000e-01 1.600000e-01
1
Step 136
X 1.600228e-01 1.600000e-01 1.600000e-01
1
Step 137
X 1.600230e-01 1.600000e-01 1.600000e-01
1
Step 138
X 1.600232e-01 1.600000e-01 1.600000e-01
1
Step 139
X 1.600233e-01 1.600000e-01 1.600000e-01
1
Step 140
X 1.600235e-01 1.600000e-01 1.600000e-01
1
Step 141
X 1.600237e-01 1.600000e-01 1.600000e-01
1
Step 142
X 1.600238e-01 1.600001e-01 1.600000e-01
1
Step 143
X 1.600240e-01 1.600001e-01 1.600000e-01
1
Step 144
X 1.600242e-01 1.600001e-01 1.600000e-01
1
Step 145
X 1.600244e-01 1.600001e-01 1.600000e-01
1
Step 146
X 1.600245e-01 1.600001e-01 1.600000e-01
1
Step 147
X 1.600247e-01 1.600001e-01 1.600000e-01
1
Step 148
X 1.600249e-01 1.600001e-01 1.600000e-01
1
Step 149
X 1.600250e-01 1.600001e-01 1.600000e-01
1
Step 150
X 1.600252e-01 1.600001e-01 1.600000e-01
1
Step 151
X 1.600254e-01 1.600001e-01 1.600000e-01
1
Step 152
X 1.600255e-01 1.600001e-01 1.600000e-01
1
Step 153
X 1.600257e-01 1.600001e-01 1.600000e-01
1
Step 154
X 1.600259e-01 1.600001e-01 1.600000e-01
1
Step 155
X 1.600260e-01 1.600001e-01 1.600000e-01
1
Step 156
X 1.600262e-01 1.600001e-01 1.600000e-01
1
Step 157
X 1.600264e-01 1.600001e-01 1.600000e-01
1
Step 158
X 1.600265e-01 1.600001e-01 1.600000e-01
1
Step 159
X 1.600267e-01 1.600001e-01 1.600000e-01
1
Step 160
X 1.600269e-01 1.600001e-01 1.600000e-01
1
Step 161
X 1.600270e-01 1.600001e-01 1.600000e-01
1
Step 162
X 1.600272e-01 1.600001e-01 1.600000e-01
1
Step 163
X 1.600274e-01 1.600001e-01 1.600000e-01
1
Step 164
X 1.600275e-01 1.600001e-01 1.600000e-01
1
Step 165
X 1.600277e-01 1.600001e-01 1.600000e-01
1
Step 166
X 1.600279e-01 1.600001e-01 1.600000e-01
1
Step 167
X 1.600280e-01 1.600001e-01 1.600000e-01
1
Step 168
X 1.600282e-01 1.600001e-01 1.600000e-01
1
Step 169
X 1.600284e-01 1.600001e-01 1.600000e-01
1
Step 170
X 1.600285e-01 1.600001e-01 1.600000e-01
1
Step 171
X 1.600287e-01 1.600001e-01 1.600000e-01
1
Step 172
X 1.600289e-01 1.600001e-01 1.600000e-01
1
Step 173
X 1.600290e-01 1.600001e-01 1.600000e-01
1
Step 174
X 1.600292e-01 1.600001e-01 1.600000e-01
1
Step 175
X 1.600294e-01 1.600001e-01 1.600000e-01
1
Step 176
X 1.600295e-01 1.600001e-01 1.600000e-01
1
Step 177
X 1.600297e-01 1.600001e-01 1.600000e-01
1
Step 178
X 1.600299e-01 1.600001e-01 1.600000e-01
1
Step 179
X 1.600300e-01 1.600001e-01 1.600000e-01
1
Step 180
X 1.600302e-01 1.600001e-01 1.600000e-01
1
Step 181
X 1.600304e-01 1.600001e-01 1.600000e-01
1
Step 182
X 1.600305e-01 1.600001e-01 1.600000e-01
1
Step 183
X 1.600307e-01 1.600001e-01 1.600000e-01
1
Step 184
X 1.600309e-01 1.600001e-01 1.600000e-01
1
Step 185
X 1.600310e-01 1.600001e-01 1.600000e-01
1
Step 186
X 1.600312e-01 1.600001e-01 1.600000e-01
1
Step 187
X 1.600314e-01 1.600001e-01 1.600000e-01
1
Step 188
X 1.600315e-01 1.600001e-01 1.600000e-01
1
Step 189
X 1.600317e-01 1.600001e-01 1.600000e-01
1
Step 190
X 1.600319e-01 1.600001e-01 1.600000e-01
1
Step 191
X 1.600320e-01 1.600001e-01 1.600000e-01
1
Step 192
X 1.600322e-01 1.600001e-01 1.600000e-01
1
Step 193
X 1.600324e-01 1.600001e-01 1.600000e-01
1
Step 194
X 1.600325e-01 1.600001e-01 1.600000e-01
1
Step 195
X 1.600327e-01 1.600001e-01 1.600000e-01
1
Step 196
X 1.600329e-01 1.600001e-01 1.600000e-01
1
Step 197
X 1.600330e-01 1.600001e-01 1.600000e-01
1
Step 198
X 1.600332e-01 1.600001e-01 1.600000e-01
1
Step 199
X 1.600334e-01 1.600001e-01 1.600000e-01
1
Step 200
X 1.600335e-01 1.600001e-01 1.600000e-01
1
Step 201
X 1.600337e-01 1.600001e-01 1.600000e-01
1
Step 202
X 1.600339e-01 1.600001e-01 1.600000e-01
1
Step 203
X 1.600340e-01 1.600001e-01 1.600000e-01
1
Step 204
X 1.600342e-01 1.600001e-01 1.600000e-01
1
Step 205
X 1.600344e-01 1.600001e-01 1.600000e-01
1
Step 206
X 1.600345e-01 1.600001e-01 1.600000e-01
1
Step 207
X 1.600347e-01 1.600001e-01 1.600000e-01
1
Step 208
X 1.600349e-01 1.600001e-01 1.600000e-01
1
Step 209
X 1.600350e-01 1.600001e-01 1.600000e-01
1
Step 210
X 1.600352e-01 1.600001e-01 1.600000e-01
1
Step 211
X 1.600354e-01 1.600001e-01 1.600000e-01
1
Step 212
X 1.600355e-01 1.600001e-01 1.600000e-01
1
Step 213
X 1.600357e-01 1.600001e-01 1.600000e-01
1
Step 214
X 1.600359e-01 1.600001e-01 1.600000e-01
1
Step 215
X 1.600360e-01 1.600001e-01 1.600000e-01
1
Step 216
X 1.600362e-01 1.600001e-01 1.600000e-01
1
Step 217
X 1.600364e-01 1.600001e-01 1.600000e-01
1
Step 218
X 1.600365e-01 1.600001e-01 1.600000e-01
1
Step 219
X 1.600367e-01 1.600001e-01 1.600000e-01
1
Step 220
X 1.600369e-01 1.600001e-01 1.600000e-01
1
Step 221
X 1.600370e-01 1.600001e-01 1.600000e-01
1
Step 222
X 1.600372e-01 1.600001e-01 1.600000e-01
1
Step 223
X 1.600374e-01 1.600001e-01 1.600000e-01
1
Step 224
X 1.600375e-01 1.600001e-01 1.600000e-01
1
Step 225
X 1.600377e-01 1.600001e-01 1.600000e-01
1
Step 226
X 1.600379e-01 1.600001e-01 1.600000e-01
1
Step 227
X 1.600380e-01 1.600001e-01 1.600000e-01
1
Step 228
X 1.600382e-01 1.600001e-01 1.600000e-01
1
Step 229
X 1.600384e-01 1.600001e-01 1.600000e-01
1
Step 230
X 1.600385e-01 1.600001e-01 1.600000e-01
1
Step 231
X 1.600387e-01 1.600001e-01 1.600000e-01
1
Step 232
X 1.600389e-01 1.600001e-01 1.600000e-01
1
Step 233
X 1.600390e-01 1.600001e-01 1.600000e-01
1
Step 234
X 1.600392e-01 1.600001e-01 1.600000e-01
1
Step 235
X 1.600394e-01 1.600001e-01 1.600000e-01
1
Step 236
X 1.600395e-01 1.600001e-01 1.600000e-01
1
Step 237
X 1.600397e-01 1.600001e-01 1.600000e-01
1
Step 238
X 1.600399e-01 1.600001e-01 1.600000e-01
1
Step 239
X 1.600400e-01 1.600001e-01 1.600000e-01
1
Step 240
X 1.600402e-01 1.600001e-01 1.600000e-01
1
Step 241
X 1.600404e-01 1.600001e-01 1.600000e-01
1
Step 242
X 1.600405e-01 1.600001e-01 1.600000e-01
1
Step 243
X 1.600407e-01 1.600001e-01 1.600000e-01
1
Step 244
X 1.600409e-01 1.600001e-01 1.600000e-01
1
Step 245
X 1.600410e-01 1.600001e-01 1.600000e-01
1
Step 246
X 1.600412e-01 1.600001e-01 1.600000e-01
1
Step 247
X 1.600414e-01 1.600002e-01 1.600000e-01
1
Step 248
X 1.600415e-01 1.600002e-01 1.600000e-01
1
Step 249
X 1.600417e-01 1.600002e-01 1.600000e-01
1
Step 250
X 1.600419e-01 1.600002e-01 1.600000e-01
1
Step 251
X 1.600420e-01 1.600002e-01 1.600000e-01
1
Step 252
X 1.600422e-01 1.600002e-01 1.600000e-01
1
Step 253
X 1.600424e-01 1.600002e-01 1.600000e-01
1
Step 254
X 1.600425e-01 1.600002e-01 1.600000e-01
1
Step 255
X 1.600427e-01 1.600002e-01 1.600000e-01
1
Step 256
X 1.600429e-01 1.600002e-01 1.600000e-01
1
Step 257
X 1.600430e-01 1.600002e-01 1.600000e-01
1
Step 258
X 1.600432e-01 1.600002e-01 1.600000e-01
1
Step 259
X 1.600434e-01 1.600002e-01 1.600000e-01
1
Step 260
X 1.600435e-01 1.600002e-01 1.600000e-01
1
Step 261
X 1.600437e-01 1.600002e-01 1.600000e-01
1
Step 262
X 1.600439e-01 1.600002e-01 1.600000e-01
1
Step 263
X 1.600440e-01 1.600002e-01 1.600000e-01
1
Step 264
X 1.600442e-01 1.600002e-01 1.600000e-01
1
Step 265
X 1.600444e-01 1.600002e-01 1.600000e-01
1
Step 266
X 1.600445e-01 1.600002e-01 1.600000e-01
1
Step 267
X 1.600447e-01 1.600002e-01 1.600000e-01
1
Step 268
X 1.600449e-01 1.600002e-01 1.600000e-01
1
Step 269
X 1.600450e-01 1.600002e-01 1.600000e-01
1
Step 270
X 1.600452e-01 1.600002e-01 1.600000e-01
1
Step 271
X 1.600454e-01 1.600002e-01 1.600000e-01
1
Step 272
X 1.600455e-01 1.600002e-01 1.600000e-01
1
Step 273
X 1.600457e-01 1.600002e-01 1.600000e-01
1
Step 274
X 1.600459e-01 1.600002e-01 1.600000e-01
1
Step 275
X 1.600460e-01 1.600002e-01 1.600000e-01
1
Step 276
X 1.600462e-01 1.600002e-01 1.600000e-01
1
Step 277
X 1.600464e-01 1.600002e-01 1.600000e-01
1
Step 278
X 1.600465e-01 1.600002e-01 1.600000e-01
1
Step 279
X 1.600467e-01 1.600002e-01 1.600000e-01
1
Step 280
X 1.600469e-01 1.600002e-01 1.600000e-01
1
Step 281
X 1.600470e-01 1.600002e-01 1.600000e-01
1
Step 282
X 1.600472e-01 1.600002e-01 1.600000e-01
1
Step 283
X 1.600474e-01 1.600002e-01 1.600000e-01
1
Step 284
X 1.600475e-01 1.600002e-01 1.600000e-01
1
Step 285
X 1.600477e-01 1.600002e-01 1.600000e-01
1
Step 286
X 1.600479e-01 1.600002e-01 1.600000e-01
1
Step 287
X 1.600480e-01 1.600002e-01 1.600000e-01
1
Step 288
X 1.600482e-01 1.600002e-01 1.600000e-01
1
Step 289
X 1.600484e-01 1.600002e-01 1.600000e-01
1
Step 290
X 1.600485e-01 1.600002e-01 1.600000e-01
1
Step 291
X 1.600487e-01 1.600002e-01 1.600000e-01
1
Step 292
X 1.600489e-01 1.600002e-01 1.600000e-01
1
Step 293
X 1.600490e-01 1.600002e-01 1.600000e-01
1
Step 294
X 1.600492e-01 1.600002e-01 1.600000e-01
1
Step 295
X 1.600494e-01 1.600002e-01 1.600000e-01
1
Step 296
X 1.600495e-01 1.600002e-01 1.600000e-01
1
Step 297
X 1.600497e-01 1.600002e-01 1.600000e-01
1
Step 298
X 1.600499e-01 1.600002e-01 1.600000e-01
1
Step 299
X 1.600500e-01 1.600002e-01 1.600000e-01
1
Step 300
X 1.600502e-01 1.600002e-01 1.600000e-01
1
Step 301
X 1.600504e-01 1.600002e-01 1.600000e-01
1
Step 302
X 1.600505e-01 1.600002e-01 1.600000e-01
1
Step 303
X 1.600507e-01 1.600002e-01 1.600000e-01
1
Step 304
X 1.600509e-01 1.600002e-01 1.600000e-01
1
Step 305
X 1.600510e-01 1.600002e-01 1.600000e-01
1
Step 306
X 1.600512e-01 1.600002e-01 1.600000e-01
1
Step 307
X 1.600514e-01 1.600002e-01 1.600000e-01
1
Step 308
X 1.600515e-01 1.600002e-01 1.600000e-01
1
Step 309
X 1.600517e-01 1.600002e-01 1.600000e-01
1
Step 310
X 1.600519e-01 1.600002e-01 1.600000e-01
1
Step 311
X 1.600520e-01 1.600002e-01 1.600000e-01
1
Step 312
X 1.600522e-01 1.600002e-01 1.600000e-01
1
Step 313
X 1.600524e-01 1.600002e-01 1.600000e-01
1
Step 314
X 1.600525e-01 1.600002e-01 1.600000e-01
1
Step 315
X 1.600527e-01 1.600002e-01 1.600000e-01
1
Step 316
X 1.600529e-01 1.600002e-01 1.600000e-01
1
Step 317
X 1.600530e-01 1.600002e-01 1.600000e-01
1
Step 318
X 1.600532e-01 1.600002e-01 1.600000e-01
1
Step 319
X 1.600534e-01 1.600003e-01 1.600000e-01
1
Step 320
X 1.600535e-01 1.600003e-01 1.600000e-01
1
Step 321
X 1.600537e-01 1.600003e-01 1.600000e-01
1
Step 322
X 1.600539e-01 1.600003e-01 1.600000e-01
1
Step 323
X 1.600540e-01 1.600003e-01 1.600000e-01
1
Step 324
X 1.600542e-01 1.600003e-01 1.600000e-01
1
Step 325
X 1.600544e-01 1.600003e-01 1.600000e-01
1
Step 326
X 1.600545e-01 1.600003e-01 1.600000e-01
1
Step 327
X 1.600547e-01 1.600003e-01 1.600000e-01
1
Step 328
X 1.600549e-01 1.600003e-01 1.600000e-01
1
Step 329
X 1.600550e-01 1.600003e-01 1.600000e-01
1
Step 330
X 1.600552e-01 1.600003e-01 1.600000e-01
1
Step 331
X 1.600554e-01 1.600003e-01 1.600000e-01
1
Step 332
X 1.600555e-01 1.600003e-01 1.600000e-01
1
Step 333
X 1.600557e-01 1.600003e-01 1.600000e-01
1
Step 334
X 1.600559e-01 1.600003e-01 1.600000e-01
1
Step 335
X 1.600560e-01 1.600003e-01 1.600000e-01
1
Step 336
X 1.600562e-01 1.600003e-01 1.600000e-01
1
Step 337
X 1.600564e-01 1.600003e-01 1.600000e-01
1
Step 338
X 1.600565e-01 1.600003e-01 1.600000e-01
1
Step 339
X 1.600567e-01 1.600003e-01 1.600000e-01
1
Step 340
X 1.600569e-01 1.600003e-01 1.600000e-01
1
Step 341
X 1.600570e-01 1.600003e-01 1.600000e-01
1
Step 342
X 1.600572e-01 1.600003e-01 1.600000e-01
1
Step 343
X 1.600574e-01 1.600003e-01 1.600000e-01
1
Step 344
X 1.600575e-01 1.600003e-01 1.600000e-01
1
Step 345
X 1.600577e-01 1.600003e-01 1.600000e-01
1
Step 346
X 1.600579e-01 1.600003e-01 1.600000e-01
1
Step 347
X 1.600580e-01 1.600003e-01 1.600000e-01
1
Step 348
X 1.600582e-01 1.600003e-01 1.600000e-01
1
Step 349
X 1.600584e-01 1.600003e-01 1.600000e-01
1
Step 350
X 1.600585e-01 1.600003e-01 1.600000e-01
1
Step 351
X 1.600587e-01 1.600003e-01 1.600000e-01
1
Step 352
X 1.600589e-01 1.600003e-01 1.600000e-01
1
Step 353
X 1.600590e-01 1.600003e-01 1.600000e-01
1
Step 354
X 1.600592e-01 1.600003e-01 1.600000e-01
1
Step 355
X 1.600594e-01 1.600003e-01 1.600000e-01
1
Step 356
X 1.600595e-01 1.600003e-01 1.600000e-01
1
Step 357
X 1.600597e-01 1.600003e-01 1.600000e-01
1
Step 358
X 1.600599e-01 1.600003e-01 1.600000e-01
1
Step 359
X 1.600600e-01 1.600003e-01 1.600000e-01
1
Step 360
X 1.600602e-01 1.600003e-01 1.600000e-01
1
Step 361
X 1.600604e-01 1.600003e-01 1.600000e-01
1
Step 362
X 1.600605e-01 1.600003e-01 1.600000e-01
1
Step 363
X 1.600607e-01 1.600003e-01 1.600000e-01
1
Step 364
X 1.600609e-01 1.600003e-01 1.600000e-01
1
Step 365
X 1.600610e-01 1.600003e-01 1.600000e-01
1
Step 366
X 1.600612e-01 1.600003e-01 1.600000e-01
1
Step 367
X 1.600614e-01 1.600003e-01 1.600000e-01
1
Step 368
X 1.600615e-01 1.600003e-01 1.600000e-01
1
Step 369
X 1.600617e-01 1.600003e-01 1.600000e-01
1
Step 370
X 1.600619e-01 1.600003e-01 1.600000e-01
1
Step 371
X 1.600620e-01 1.600003e-01 1.600000e-01
1
Step 372
X 1.600622e-01 1.600003e-01 1.600000e-01
1
Step 373
X 1.600624e-01 1.600003e-01 1.600000e-01
1
Step 374
X 1.600625e-01 1.600003e-01 1.600000e-01
1
Step 375
X 1.600627e-01 1.600003e-01 1.600000e-01
1
Step 376
X 1.600629e-01 1.600003e-01 1.600000e-01
1
Step 377
X 1.600630e-01 1.600004e-01 1.600000e-01
1
Step 378
X 1.600632e-01 1.600004e-01 1.600000e-01
1
Step 379
X 1.600634e-01 1.600004e-01 1.600000e-01
1
Step 380
X 1.600635e-01 1.600004e-01 1.600000e-01
1
Step 381
X 1.600637e-01 1.600004e-01 1.600000e-01
1
Step 382
X 1.600639e-01 1.600004e-01 1.600000e-01
1
Step 383
X 1.600640e-01 1.600004e-01 1.600000e-01
1
Step 384
X 1.600642e-01 1.600004e-01 1.600000e-01
1
Step 385
X 1.600644e-01 1.600004e-01 1.600000e-01
1
Step 386
X 1.600645e-01 1.600004e-01 1.600000e-01
1
Step 387
X 1.600647e-01 1.600004e-01 1.600000e-01
1
Step 388
X 1.600649e-01 1.600004e-01 1.600000e-01
1
Step 389
X 1.600650e-01 1.600004e-01 1.600000e-01
1
Step 390
X 1.600652e-01 1.600004e-01 1.600000e-01
1
Step 391
X 1.600654e-01 1.600004e-01 1.600000e-01
1
Step 392
X 1.600655e-01 1.600004e-01 1.600000e-01
1
Step 393
X 1.600657e-01 1.600004e-01 1.600000e-01
1
Step 394
X 1.600659e-01 1.600004e-01 1.600000e-01
1
Step 395
X 1.600660e-01 1.600004e-01 1.600000e-01
1
Step 396
X 1.600662e-01 1.600004e-01 1.600000e-01
1
Step 397
X 1.600664e-01 1.600004e-01 1.600000e-01
1
Step 398
X 1.600665e-01 1.600004e-01 1.600000e-01
1
Step 399
X 1.600667e-01 1.600004e-01 1.600000e-01
1
Step 400
X 1.600669e-01 1.600004e-01 1.600000e-01
1
Step 401
X 1.600670e-01 1.600004e-01 1.600000e-01
1
Step 402
X 1.600672e-01 1.600004e-01 1.600000e-01
1
Step 403
X 1.600674e-01 1.600004e-01 1.600000e-01
1
Step 404
X 1.600675e-01 1.600004e-01 1.600000e-01
1
Step 405
X 1.600677e-01 1.600004e-01 1.600000e-01
1
Step 406
X 1.600679e-01 1.600004e-01 1.600000e-01
1
Step 407
X 1.600680e-01 1.600004e-01 1.600000e-01
1
Step 408
X 1.600682e-01 1.600004e-01 1.600000e-01
1
Step 409
X 1.600684e-01 1.600004e-01 1.600000e-01
1
Step 410
X 1.600685e-01 1.600004e-01 1.600000e-01
1
Step 411
X 1.600687e-01 1.600004e-01 1.600000e-01
1
Step 412
X 1.600689e-01 1.600004e-01 1.600000e-01
1
Step 413
X 1.600690e-01 1.600004e-01 1.600000e-01
1
Step 414
X 1.600692e-01 1.600004e-01 1.600000e-01
1
Step 415
X 1.600694e-01 1.600004e-01 1.600000e-01
1
Step 416
X 1.600695e-01 1.600004e-01 1.600000e-01
1
Step 417
X 1.600697e-01 1.600004e-01 1.600000e-01
1
Step 418
X 1.600699e-01 1.600004e-01 1.600000e-01
1
Step 419
X 1.600700e-01 1.600004e-01 1.600000e-01
1
Step 420
X 1.600702e-01 1.600004e-01 1.600000e-01
1
Step 421
X 1.600704e-01 1.600004e-01 1.600000e-01
1
Step 422
X 1.600705e-01 1.600004e-01 1.600000e-01
1
Step 423
X 1.600707e-01 1.600004e-01 1.600000e-01
1
Step 424
X 1.600709e-01 1.600004e-01 1.600000e-01
1
Step 425
X 1.600710e-01 1.600004e-01 1.600000e-01
1
Step 426
X 1.600712e-01 1.600004e-01 1.600000e-01
1
Step 427
X 1.600714e-01 1.600004e-01 1.600000e-01
1
Step 428
X 1.600715e-01 1.600005e-01 1.600000e-01
1
Step 429
X 1.600717e-01 1.600005e-01 1.600000e-01
1
Step 430
X 1.600719e-01 1.600005e-01 1.600000e-01
1
Step 431
X 1.600720e-01 1.600005e-01 1.600000e-01
1
Step 432
X 1.600722e-01 1.600005e-01 1.600000e-01
1
Step 433
X 1.600724e-01 1.600005e-01 1.600000e-01
1
Step 434
X 1.600725e-01 1.600005e-01 1.600000e-01
1
Step 435
X 1.600727e-01 1.600005e-01 1.600000e-01
1
Step 436
X 1.600729e-01 1.600005e-01 1.600000e-01
1
Step 437
X 1.600730e-01 1.600005e-01 1.600000e-01
1
Step 438
X 1.600732e-01 1.600005e-01 1.600000e-01
1
Step 439
X 1.600734e-01 1.600005e-01 1.600000e-01
1
Step 440
X 1.600735e-01 1.600005e-01 1.600000e-01
1
Step 441
X 1.600737e-01 1.600005e-01 1.600000e-01
1
Step 442
X 1.600739e-01 1.600005e-01 1.600000e-01
1
Step 443
X 1.600740e-01 1.600005e-01 1.600000e-01
1
Step 444
X 1.600742e-01 1.600005e-01 1.600000e-01
1
Step 445
X 1.600744e-01 1.600005e-01 1.600000e-01
1
Step 446
X 1.600745e-01 1.600005e-01 1.600000e-01
1
Step 447
X 1.600747e-01 1.600005e-01 1.600000e-01
1
Step 448
X 1.600749e-01 1.600005e-01 1.600000e-01
1
Step 449
X 1.600750e-01 1.600005e-01 1.600000e-01
1
Step 450
X 1.600752e-01 1.600005e-01 1.600000e-01
1
Step 451
X 1.600754e-01 1.600005e-01 1.600000e-01
1
Step 452
X 1.600756e-01 1.600005e-01 1.600000e-01
1
Step 453
X 1.600757e-01 1.600005e-01 1.600000e-01
1
Step 454
X 1.600759e-01 1.600005e-01 1.600000e-01
1
Step 455
X 1.600761e-01 1.600005e-01 1.600000e-01
1
Step 456
X 1.600762e-01 1.600005e-01 1.600000e-01
1
Step 457
X 1.600764e-01 1.600005e-01 1.600000e-01
1
Step 458
X 1.600766e-01 1.600005e-01 1.600000e-01
1
Step 459
X 1.600767e-01 1.600005e-01 1.600000e-01
1
Step 460
X 1.600769e-01 1.600005e-01 1.600000e-01
1
Step 461
X 1.600771e-01 1.600005e-01 1.600000e-01
1
Step 462
X 1.600772e-01 1.600005e-01 1.600000e-01
1
Step 463
X 1.600774e-01 1.600005e-01 1.600000e-01
1
Step 464
X 1.600776e-01 1.600005e-01 1.600000e-01
1
Step 465
X 1.600777e-01 1.600005e-01 1.600000e-01
1
Step 466
X 1.600779e-01 1.600005e-01 1.600000e-01
1
Step 467
X 1.600781e-01 1.600005e-01 1.600000e-01
1
Step 468
X 1.600782e-01 1.600005e-01 1.600000e-01
1
Step 469
X 1.600784e-01 1.600005e-01 1.600000e-01
1
Step 470
X 1.600786e-01 1.600005e-01 1.600000e-01
1
Step 471
X 1.600787e-01 1.600005e-01 1.600000e-01
1
Step 472
X 1.600789e-01 1.600005e-01 1.600000e-01
1
Step 473
X 1.600791e-01 1.600006e-01 1.600000e-01
1
Step 474
X 1.600792e-01 1.600006e-01 1.600000e-01
1
Step 475
X 1.600794e-01 1.600006e-01 1.600000e-01
1
Step 476
X 1.600796e-01 1.600006e-01 1.600000e-01
1
Step 477
X 1.600797e-01 1.600006e-01 1.600000e-01
1
Step 478
X 1.600799e-01 1.600006e-01 1.600000e-01
1
Step 479
X 1.600801e-01 1.600006e-01 1.600000e-01
1
Step 480
X 1.600802e-01 1.600006e-01 1.600000e-01
1
Step 481
X 1.600804e-01 1.600006e-01 1.600000e-01
1
Step 482
X 1.600806e-01 1.600006e-01 1.600000e-01
1
Step 483
X 1.600807e-01 1.600006e-01 1.600000e-01
1
Step 484
X 1.600809e-01 1.600006e-01 1.600000e-01
1
Step 485
X 1.600811e-01 1.600006e-01 1.600000e-01
1
Step 486
X 1.600812e-01 1.600006e-01 1.600000e-01
1
Step 487
X 1.600814e-01 1.600006e-01 1.600000e-01
1
Step 488
X 1.600816e-01 1.600006e-01 1.600000e-01
1
Step 489
X 1.600817e-01 1.600006e-01 1.600000e-01
1
Step 490
X 1.600819e-01 1.600006e-01 1.600000e-01
1
Step 491
X 1.600821e-01 1.600006e-01 1.600000e-01
1
Step 492
X 1.600822e-01 1.600006e-01 1.600000e-01
1
Step 493
X 1.600824e-01 1.600006e-01 1.600000e-01
1
Step 494
X 1.600826e-01 1.600006e-01 1.600000e-01
1
Step 495
X 1.600827e-01 1.600006e-01 1.600000e-01
1
Step 496
X 1.600829e-01 1.600006e-01 1.600000e-01
1
Step 497
X 1.600831e-01 1.600006e-01 1.600000e-01
1
Step 498
X 1.600832e-01 1.600006e-01 1.600000e-01
1
Step 499
X 1.600834e-01 1.600006e-01 1.600000e-01
1
Step 500
X 1.600836e-01 1.600006e-01 1.600000e-01
1
Step 501
X 1.600837e-01 1.600006e-01 1.600000e-01
1
Step 502
X 1.600839e-01 1.600006e-01 1.600000e-01
1
Step 503
X 1.600841e-01 1.600006e-01 1.600000e-01
1
Step 504
X 1.600842e-01 1.600006e-01 1.600000e-01
1
Step 505
X 1.600844e-01 1.600006e-01 1.600000e-01
1
Step 506
X 1.600846e-01 1.600006e-01 1.600000e-01
1
Step 507
X 1.600847e-01 1.600006e-01 1.600000e-01
1
Step 508
X 1.600849e-01 1.600006e-01 1.600000e-01
1
Step 509
X 1.600851e-01 1.600006e-01 1.600000e-01
1
Step 510
X 1.600852e-01 1.600006e-01 1.600000e-01
1
Step 511
X 1.600854e-01 1.600006e-01 1.600000e-01
1
Step 512
X 1.600856e-01 1.600006e-01 1.600000e-01
1
Step 513
X 1.600857e-01 1.600006e-01 1.600000e-01
1
Step 514
X 1.600859e-01 1.600006e-01 1.600000e-01
1
Step 515
X 1.600861e-01 1.600007e-01 1.600000e-01
1
Step 516
X 1.600862e-01 1.600007e-01 1.600000e-01
1
Step 517
X 1.600864e-01 1.600007e-01 1.600000e-01
1
Step 518
X 1.600866e-01 1.600007e-01 1.600000e-01
1
Step 519
X 1.600867e-01 1.600007e-01 1.600000e-01
1
Step 520
X 1.600869e-01 1.600007e-01 1.600000e-01
1
Step 521
X 1.600871e-01 1.600007e-01 1.600000e-01
1
Step 522
X 1.600872e-01 1.600007e-01 1.600000e-01
1
Step 523
X 1.600874e-01 1.600007e-01 1.600000e-01
1
Step 524
X 1.600876e-01 1.600007e-01 1.600000e-01
1
Step 525
X 1.600877e-01 1.600007e-01 1.600000e-01
1
Step 526
X 1.600879e-01 1.600007e-01 1.600000e-01
1
Step 527
X 1.600881e-01 1.600007e-01 1.600000e-01
1
Step 528
X 1.600882e-01 1.600007e-01 1.600000e-01
1
Step 529
X 1.600884e-01 1.600007e-01 1.600000e-01
1
Step 530
X 1.600886e-01 1.600007e-01 1.600000e-01
1
Step 531
X 1.600887e-01 1.600007e-01 1.600000e-01
1
Step 532
X 1.600889e-01 1.600007e-01 1.600000e-01
1
Step 533
X 1.600891e-01 1.600007e-01 1.600000e-01
1
Step 534
X 1.600892e-01 1.600007e-01 1.600000e-01
1
Step 535
X 1.600894e-01 1.600007e-01 1.600000e-01
1
Step 536
X 1.600896e-01 1.600007e-01 1.600000e-01
1
Step 537
X 1.600897e-01 1.600007e-01 1.600000e-01
1
Step 538
X 1.600899e-01 1.600007e-01 1.600000e-01
1
Step 539
X 1.600901e-01 1.600007e-01 1.600000e-01
1
Step 540
X 1.600902e-01 1.600007e-01 1.600000e-01
1
Step 541
X 1.600904e-01 1.600007e-01 1.600000e-01
1
Step 542
X 1.600906e-01 1.600007e-01 1.600000e-01
1
Step 543
X 1.600907e-01 1.600007e-01 1.600000e-01
1
Step 544
X 1.600909e-01 1.600007e-01 1.600000e-01
1
Step 545
X 1.600911e-01 1.600007e-01 1.600000e-01
1
Step 546
X 1.600912e-01 1.600007e-01 1.600000e-01
1
Step 547
X 1.600914e-01 1.600007e-01 1.600000e-01
1
Step 548
X 1.600916e-01 1.600007e-01 1.600000e-01
1
Step 549
X 1.600917e-01 1.600007e-01 1.600000e-01
1
Step 550
X 1.600919e-01 1.600007e-01 1.600000e-01
1
Step 551
X 1.600921e-01 1.600007e-01 1.600000e-01
1
Step 552
X 1.600922e-01 1.600007e-01 1.600000e-01
1
Step 553
X 1.600924e-01 1.600008e-01 1.600000e-01
1
Step 554
X 1.600926e-01 1.600008e-01 1.600000e-01
1
Step 555
X 1.600927e-01 1.600008e-01 1.600000e-01
1
Step 556
X 1.600929e-01 1.600008e-01 1.600000e-01
1
Step 557
X 1.600931e-01 1.600008e-01 1.600000e-01
1
Step 558
X 1.600932e-01 1.600008e-01 1.600000e-01
1
Step 559
X 1.600934e-01 1.600008e-01 1.600000e-01
1
Step 560
X 1.600936e-01 1.600008e-01 1.600000e-01
1
Step 561
X 1.600937e-01 1.600008e-01 1.600000e-01
1
Step 562
X 1.600939e-01 1.600008e-01 1.600000e-01
1
Step 563
X 1.600941e-01 1.600008e-01 1.600000e-01
1
Step 564
X 1.600942e-01 1.600008e-01 1.600000e-01
1
Step 565
X 1.600944e-01 1.600008e-01 1.600000e-01
1
Step 566
X 1.600946e-01 1.600008e-01 1.600000e-01
1
Step 567
X 1.600947e-01 1.600008e-01 1.600000e-01
1
Step 568
X 1.600949e-01 1.600008e-01 1.600000e-01
1
Step 569
X 1.600951e-01 1.600008e-01 1.600000e-01
1
Step 570
X 1.600952e-01 1.600008e-01 1.600000e-01
1
Step 571
X 1.600954e-01 1.600008e-01 1.600000e-01
1
Step 572
X 1.600956e-01 1.600008e-01 1.600000e-01
1
Step 573
X 1.600957e-01 1.600008e-01 1.600000e-01
1
Step 574
X 1.600959e-01 1.600008e-01 1.600000e-01
1
Step 575
X 1.600961e-01 1.600008e-01 1.600000e-01
1
Step 576
X 1.600962e-01 1.600008e-01 1.600000e-01
1
Step 577
X 1.600964e-01 1.600008e-01 1.600000e-01
1
Step 578
X 1.600966e-01 1.600008e-01 1.600000e-01
1