1000
Step 0
X 9.255457e-03 9.255912e-03 9.255897e-03
X 3.077570e-07 4.915479e-07 9.579059e-09
X 1.783899e-02 1.783886e-02 1.783908e-02
X 6.332322e-03 6.332414e-03 6.332785e-03
X 2.473938e-02 2.473898e-02 2.473936e-02
X 6.036816e-03 6.037185e-03 6.037124e-03
X 2.135777e-02 2.135761e-02 2.135772e-02
X 1.248753e-02 1.248784e-02 1.248747e-02
X 1.657244e-02 1.657220e-02 1.657249e-02
X 6.015402e-03 6.015164e-03 6.015103e-03
X 9.213164e-03 9.213019e-03 9.212911e-03
X 2.082666e-02 2.082706e-02 2.082669e-02
X 6.788987e-03 6.788678e-03 6.789007e-03
X 1.351185e-02 1.351174e-02 1.351182e-02
X 8.414110e-03 8.413966e-03 8.413946e-03
X 1.179336e-02 1.179362e-02 1.179345e-02
X 1.553583e-07 4.837653e-07 4.933353e-07
X 9.343654e-03 9.343845e-03 9.343501e-03
X 7.869564e-03 7.869416e-03 7.869683e-03
X 2.032587e-02 2.032608e-02 2.032602e-02
X 2.092088e-02 2.092059e-02 2.092090e-02
X 1.934065e-02 1.934086e-02 1.934088e-02
X 2.558912e-02 2.558910e-02 2.558912e-02
X 9.599443e-03 9.599493e-03 9.599299e-03
X 1.748102e-02 1.748105e-02 1.748130e-02
X 1.237595e-02 1.237599e-02 1.237592e-02
X 1.483183e-02 1.483180e-02 1.483222e-02
X 8.837796e-03 8.837958e-03 8.837875e-03
X 1.097275e-02 1.097249e-02 1.097265e-02
X 9.369485e-03 9.369295e-03 9.369541e-03
X 9.115611e-03 9.115563e-03 9.115646e-03
X 6.213667e-03 6.213979e-03 6.213729e-03
X 1.182925e-02 1.182914e-02 1.182894e-02
X 9.282602e-03 9.282291e-03 9.282488e-03
X 1.174006e-02 1.174030e-02 1.174028e-02
X 7.432069e-03 7.432447e-03 7.432395e-03
X 6.243411e-03 6.243133e-03 6.243191e-03
X 1.566565e-02 1.566581e-02 1.566592e-02
X 1.100265e-02 1.100259e-02 1.100270e-02
X 1.355724e-02 1.355737e-02 1.355714e-02
X 1.008701e-02 1.008670e-02 1.008677e-02
X 1.580080e-02 1.580078e-02 1.580082e-02
X 1.905812e-02 1.905811e-02 1.905822e-02
X 1.222187e-02 1.222200e-02 1.222192e-02
X 1.341636e-02 1.341649e-02 1.341637e-02
X 9.472125e-03 9.472140e-03 9.471759e-03
X 1.934814e-02 1.934838e-02 1.934830e-02
X 4.930801e-07 3.224028e-07 3.082102e-07
X 7.498488e-03 7.498479e-03 7.498760e-03
X 1.673239e-02 1.673208e-02 1.673200e-02
X 1.475853e-02 1.475845e-02 1.475841e-02
X 1.081739e-02 1.081747e-02 1.081745e-02
X 1.278000e-02 1.277966e-02 1.278001e-02
X 1.909073e-07 4.972926e-07 7.328574e-08
X 1.861240e-02 1.861215e-02 1.861234e-02
X 9.453167e-03 9.453182e-03 9.453376e-03
X 1.395372e-02 1.395366e-02 1.395367e-02
X 4.814579e-07 2.564877e-07 4.998594e-07
X 1.128644e-02 1.128647e-02 1.128678e-02
X 6.765744e-03 6.765962e-03 6.765826e-03
X 1.547014e-02 1.547019e-02 1.547024e-02
X 8.510393e-03 8.510596e-03 8.510232e-03
X 1.231443e-02 1.231443e-02 1.231447e-02
X 1.266960e-02 1.266955e-02 1.266951e-02
X 9.299545e-03 9.299530e-03 9.299504e-03
X 1.210127e-02 1.210099e-02 1.210091e-02
X 1.200063e-02 1.200041e-02 1.200062e-02
X 1.518523e-02 1.518548e-02 1.518566e-02
X 4.969149e-07 2.446442e-07 2.891573e-07
X 4.938524e-07 1.979458e-08 4.154856e-07
X 1.192150e-02 1.192164e-02 1.192184e-02
X 2.057308e-02 2.057307e-02 2.057296e-02
X 9.771823e-03 9.771861e-03 9.771657e-03
X 1.589364e-02 1.589329e-02 1.589317e-02
X 9.988807e-03 9.988701e-03 9.989095e-03
X 6.487392e-03 6.487652e-03 6.487203e-03
X 6.924001e-03 6.924374e-03 6.924410e-03
X 9.764877e-03 9.764718e-03 9.764422e-03
X 9.314955e-03 9.314608e-03 9.314604e-03
X 6.184024e-03 6.183706e-03 6.183995e-03
X 1.385733e-02 1.385723e-02 1.385717e-02
X 1.380020e-02 1.380027e-02 1.380041e-02
X 9.523452e-03 9.523196e-03 9.523404e-03
X 1.650486e-07 6.157445e-08 4.913138e-07
X 8.461176e-03 8.461066e-03 8.461077e-03
X 7.400344e-03 7.400572e-03 7.400504e-03
X 6.886560e-03 6.886252e-03 6.886672e-03
X 2.309097e-02 2.309117e-02 2.309078e-02
X 1.595456e-02 1.595458e-02 1.595485e-02
X 1.528727e-02 1.528719e-02 1.528735e-02
X 1.762911e-02 1.762931e-02 1.762928e-02
X 1.007134e-02 1.007141e-02 1.007164e-02
X 1.194646e-02 1.194666e-02 1.194640e-02
X 1.026628e-02 1.026633e-02 1.026610e-02
X 1.276041e-02 1.275995e-02 1.276008e-02
X 9.326234e-03 9.326128e-03 9.326019e-03
X 1.381553e-02 1.381512e-02 1.381532e-02
X 7.105865e-03 7.106078e-03 7.105865e-03
X 1.001747e-02 1.001743e-02 1.001755e-02
X 3.401542e-02 3.401548e-02 3.401517e-02
X 1.914443e-02 1.914432e-02 1.914438e-02
X 2.151805e-02 2.151794e-02 2.151783e-02
X 1.219047e-02 1.219059e-02 1.219037e-02
X 1.521131e-02 1.521148e-02 1.521136e-02
X 2.028196e-02 2.028203e-02 2.028227e-02
X 1.379208e-02 1.379204e-02 1.379206e-02
X 1.035790e-02 1.035769e-02 1.035788e-02
X 8.678027e-03 8.678132e-03 8.678492e-03
X 1.885793e-02 1.885769e-02 1.885766e-02
X 1.662207e-02 1.662210e-02 1.662186e-02
X 9.626679e-03 9.626798e-03 9.626586e-03
X 1.433924e-02 1.433947e-02 1.433910e-02
X 1.480418e-02 1.480447e-02 1.480423e-02
X 1.404984e-02 1.404994e-02 1.404970e-02
X 6.525728e-03 6.525380e-03 6.525408e-03
X 1.287674e-02 1.287665e-02 1.287686e-02
X 7.544536e-03 7.544967e-03 7.544893e-03
X 1.375953e-02 1.375953e-02 1.375968e-02
X 1.927733e-02 1.927733e-02 1.927755e-02
X 1.520147e-02 1.520155e-02 1.520163e-02
X 8.493165e-03 8.493434e-03 8.493314e-03
X 1.063141e-02 1.063147e-02 1.063128e-02
X 1.034624e-02 1.034593e-02 1.034614e-02
X 1.919920e-02 1.919932e-02 1.919924e-02
X 1.230327e-02 1.230321e-02 1.230346e-02
X 7.032907e-03 7.033037e-03 7.032744e-03
X 1.045597e-02 1.045592e-02 1.045596e-02
X 5.990474e-03 5.990532e-03 5.990195e-03
X 8.737542e-03 8.737543e-03 8.737725e-03
X 8.302031e-03 8.302011e-03 8.301995e-03
X 4.978305e-07 4.840678e-07 2.059750e-07
X 1.376104e-02 1.376125e-02 1.376132e-02
X 1.374720e-02 1.374721e-02 1.374738e-02
X 1.234832e-02 1.234829e-02 1.234847e-02
X 1.063991e-07 2.666768e-07 4.981628e-07
X 6.781723e-03 6.781811e-03 6.781843e-03
X 1.384654e-02 1.384653e-02 1.384686e-02
X 1.098828e-02 1.098812e-02 1.098827e-02
X 4.939056e-07 1.640115e-07 1.702985e-07
X 1.318301e-02 1.318269e-02 1.318300e-02
X 1.324630e-02 1.324627e-02 1.324662e-02
X 1.629822e-02 1.629819e-02 1.629808e-02
X 6.711292e-03 6.711392e-03 6.711452e-03
X 9.096824e-03 9.096929e-03 9.096999e-03
X 6.290352e-03 6.290474e-03 6.290324e-03
X 7.159213e-03 7.159230e-03 7.159352e-03
X 1.540502e-02 1.540536e-02 1.540519e-02
X 8.986572e-03 8.986441e-03 8.986547e-03
X 7.201574e-03 7.201790e-03 7.201692e-03
X 9.424698e-03 9.424522e-03 9.424577e-03
X 1.578427e-02 1.578423e-02 1.578420e-02
X 6.420963e-03 6.421394e-03 6.421221e-03
X 1.200053e-02 1.200040e-02 1.200043e-02
X 1.471794e-02 1.471809e-02 1.471815e-02
X 1.172768e-02 1.172800e-02 1.172773e-02
X 7.185631e-03 7.185582e-03 7.185460e-03
X 1.226414e-02 1.226410e-02 1.226431e-02
X 9.235264e-03 9.235025e-03 9.234864e-03
X 1.710699e-02 1.710690e-02 1.710693e-02
X 1.146673e-02 1.146667e-02 1.146669e-02
X 1.580671e-02 1.580645e-02 1.580654e-02
X 2.134948e-02 2.134941e-02 2.134969e-02
X 1.054372e-02 1.054398e-02 1.054375e-02
X 1.001553e-02 1.001539e-02 1.001574e-02
X 1.134481e-02 1.134449e-02 1.134467e-02
X 1.543036e-02 1.543055e-02 1.543051e-02
X 1.335061e-02 1.335037e-02 1.335036e-02
X 2.394444e-02 2.394412e-02 2.394435e-02
X 1.578583e-02 1.578576e-02 1.578591e-02
X 7.874265e-03 7.874245e-03 7.874393e-03
X 9.603677e-03 9.603672e-03 9.603888e-03
X 8.105301e-03 8.105518e-03 8.105668e-03
X 1.263904e-02 1.263902e-02 1.263902e-02
X 7.257367e-03 7.257317e-03 7.257266e-03
X 9.892116e-03 9.892186e-03 9.892427e-03
X 1.167855e-02 1.167894e-02 1.167849e-02
X 9.154588e-03 9.154699e-03 9.154502e-03
X 1.134309e-02 1.134332e-02 1.134295e-02
X 8.840442e-03 8.840325e-03 8.840238e-03
X 1.231315e-02 1.231333e-02 1.231341e-02
X 1.295081e-02 1.295089e-02 1.295086e-02
X 1.532843e-02 1.532873e-02 1.532836e-02
X 3.280073e-07 4.925435e-07 3.042037e-07
X 1.737809e-02 1.737832e-02 1.737838e-02
X 3.345077e-07 4.926116e-07 1.558633e-07
X 5.832773e-03 5.832721e-03 5.832911e-03
X 2.675798e-02 2.675817e-02 2.675832e-02
X 1.740210e-02 1.740224e-02 1.740214e-02
X 4.449531e-07 4.990775e-07 3.341967e-07
X 1.456285e-02 1.456261e-02 1.456279e-02
X 1.122517e-02 1.122496e-02 1.122517e-02
X 4.672943e-07 4.890186e-07 4.902136e-07
X 9.530793e-03 9.530624e-03 9.530706e-03
X 1.128970e-02 1.128968e-02 1.128956e-02
X 1.134089e-02 1.134097e-02 1.134058e-02
X 1.628916e-02 1.628927e-02 1.628922e-02
X 8.404859e-03 8.404844e-03 8.404810e-03
X 2.484084e-07 1.792498e-07 4.977246e-07
X 7.558857e-03 7.559168e-03 7.558995e-03
X 1.124947e-02 1.124925e-02 1.124952e-02
X 1.117781e-02 1.117748e-02 1.117762e-02
X 1.154767e-02 1.154763e-02 1.154754e-02
X 1.506144e-02 1.506139e-02 1.506138e-02
X 6.903961e-03 6.903739e-03 6.903973e-03
X 7.995961e-03 7.995996e-03 7.995589e-03
X 1.205001e-02 1.205039e-02 1.205031e-02
X 1.108706e-02 1.108722e-02 1.108716e-02
X 2.134170e-02 2.134189e-02 2.134197e-02
X 8.284520e-03 8.284891e-03 8.284759e-03
X 2.009441e-02 2.009482e-02 2.009463e-02
X 1.361457e-02 1.361480e-02 1.361470e-02
X 1.391432e-02 1.391449e-02 1.391461e-02
X 1.012406e-02 1.012431e-02 1.012384e-02
X 1.133889e-02 1.133887e-02 1.133928e-02
X 1.079015e-02 1.078986e-02 1.078991e-02
X 5.790040e-03 5.789899e-03 5.790030e-03
X 1.005914e-02 1.005903e-02 1.005946e-02
X 1.633121e-02 1.633086e-02 1.633091e-02
X 6.944030e-03 6.944271e-03 6.944420e-03
X 9.232943e-03 9.232889e-03 9.232827e-03
X 1.115116e-02 1.115096e-02 1.115114e-02
X 8.866976e-03 8.866816e-03 8.866926e-03
X 6.033097e-03 6.033259e-03 6.033069e-03
X 1.094444e-02 1.094477e-02 1.094448e-02
X 9.790455e-03 9.790194e-03 9.790480e-03
X 6.593239e-03 6.593288e-03 6.593287e-03
X 6.374596e-03 6.374494e-03 6.374627e-03
X 3.312406e-02 3.312408e-02 3.312401e-02
X 1.748733e-02 1.748753e-02 1.748749e-02
X 1.051678e-02 1.051642e-02 1.051684e-02
X 1.891202e-02 1.891245e-02 1.891226e-02
X 1.223038e-02 1.223039e-02 1.223036e-02
X 1.062095e-02 1.062091e-02 1.062099e-02
X 1.401418e-02 1.401416e-02 1.401408e-02
X 1.105922e-02 1.105917e-02 1.105888e-02
X 1.369620e-02 1.369644e-02 1.369622e-02
X 1.277384e-02 1.277405e-02 1.277405e-02
X 8.394473e-03 8.394826e-03 8.394513e-03
X 1.439950e-02 1.439930e-02 1.439913e-02
X 1.211846e-02 1.211824e-02 1.211856e-02
X 1.845545e-02 1.845539e-02 1.845526e-02
X 7.827094e-03 7.827252e-03 7.827292e-03
X 8.645600e-03 8.645705e-03 8.645583e-03
X 1.053598e-02 1.053604e-02 1.053617e-02
X 9.502589e-03 9.502885e-03 9.502685e-03
X 1.785693e-02 1.785700e-02 1.785723e-02
X 1.569985e-02 1.570012e-02 1.570022e-02
X 1.348938e-02 1.348899e-02 1.348923e-02
X 1.624107e-02 1.624134e-02 1.624113e-02
X 8.618064e-03 8.618042e-03 8.618199e-03
X 2.297352e-02 2.297380e-02 2.297383e-02
X 1.064829e-02 1.064808e-02 1.064838e-02
X 2.559784e-02 2.559798e-02 2.559781e-02
X 9.387824e-03 9.387779e-03 9.387512e-03
X 6.200394e-03 6.200356e-03 6.200494e-03
X 1.466198e-02 1.466164e-02 1.466165e-02
X 7.370892e-03 7.370990e-03 7.370748e-03
X 1.109286e-02 1.109291e-02 1.109276e-02
X 9.554998e-03 9.555272e-03 9.555113e-03
X 1.102144e-02 1.102146e-02 1.102123e-02
X 1.267081e-02 1.267077e-02 1.267103e-02
X 2.056641e-02 2.056671e-02 2.056671e-02
X 8.048174e-03 8.047913e-03 8.048015e-03
X 1.185615e-02 1.185603e-02 1.185613e-02
X 1.105142e-02 1.105127e-02 1.105144e-02
X 3.362277e-02 3.362275e-02 3.362268e-02
X 2.053803e-02 2.053830e-02 2.053802e-02
X 1.586050e-02 1.586073e-02 1.586056e-02
X 1.963509e-02 1.963535e-02 1.963525e-02
X 6.062570e-03 6.062642e-03 6.062531e-03
X 1.441860e-02 1.441830e-02 1.441839e-02
X 1.178186e-02 1.178153e-02 1.178164e-02
X 3.536777e-07 4.958266e-07 1.288626e-07
X 1.343288e-02 1.343298e-02 1.343289e-02
X 5.925957e-03 5.925916e-03 5.926087e-03
X 1.576529e-02 1.576529e-02 1.576530e-02
X 1.649500e-02 1.649495e-02 1.649522e-02
X 1.357621e-02 1.357616e-02 1.357605e-02
X 1.052262e-02 1.052267e-02 1.052240e-02
X 1.499334e-02 1.499294e-02 1.499328e-02
X 1.465034e-02 1.465041e-02 1.465048e-02
X 2.065028e-02 2.065027e-02 2.065005e-02
X 2.451328e-02 2.451357e-02 2.451333e-02
X 9.580378e-03 9.580057e-03 9.580431e-03
X 1.185168e-02 1.185180e-02 1.185184e-02
X 1.133226e-02 1.133203e-02 1.133198e-02
X 6.056470e-03 6.056860e-03 6.056762e-03
X 1.161872e-02 1.161880e-02 1.161869e-02
X 6.827655e-03 6.827637e-03 6.827718e-03
X 1.372339e-02 1.372333e-02 1.372335e-02
X 1.225623e-02 1.225648e-02 1.225633e-02
X 1.414893e-02 1.414895e-02 1.414854e-02
X 1.964804e-02 1.964799e-02 1.964781e-02
X 1.364431e-02 1.364425e-02 1.364459e-02
X 1.440726e-02 1.440736e-02 1.440733e-02
X 1.590120e-02 1.590122e-02 1.590123e-02
X 1.850773e-02 1.850758e-02 1.850788e-02
X 5.667090e-03 5.666889e-03 5.667129e-03
X 6.367840e-03 6.367920e-03 6.367722e-03
X 1.964208e-02 1.964218e-02 1.964214e-02
X 1.859761e-02 1.859734e-02 1.859738e-02
X 1.449723e-02 1.449715e-02 1.449706e-02
X 1.075630e-02 1.075608e-02 1.075631e-02
X 1.045979e-02 1.045997e-02 1.045951e-02
X 1.418521e-02 1.418502e-02 1.418492e-02
X 4.994314e-07 4.507437e-07 4.802969e-07
X 1.159596e-02 1.159611e-02 1.159616e-02
X 1.067062e-02 1.067041e-02 1.067041e-02
X 1.602029e-02 1.602024e-02 1.602042e-02
X 4.068009e-08 1.826476e-07 4.937057e-07
X 9.301453e-03 9.301355e-03 9.301550e-03
X 7.613727e-03 7.613876e-03 7.613614e-03
X 1.512853e-02 1.512821e-02 1.512812e-02
X 1.049830e-02 1.049833e-02 1.049859e-02
X 7.042214e-03 7.042332e-03 7.042334e-03
X 1.724575e-02 1.724569e-02 1.724604e-02
X 6.980508e-03 6.980550e-03 6.980758e-03
X 1.518408e-02 1.518427e-02 1.518431e-02
X 1.329168e-02 1.329159e-02 1.329147e-02
X 6.984291e-03 6.984321e-03 6.984310e-03
X 1.159273e-02 1.159263e-02 1.159245e-02
X 2.191933e-02 2.191966e-02 2.191942e-02
X 1.050441e-02 1.050418e-02 1.050408e-02
X 1.908562e-02 1.908581e-02 1.908592e-02
X 7.837203e-03 7.837431e-03 7.837399e-03
X 9.656831e-03 9.656848e-03 9.656796e-03
X 1.045471e-02 1.045428e-02 1.045456e-02
X 1.891880e-02 1.891910e-02 1.891867e-02
X 1.103202e-02 1.103229e-02 1.103215e-02
X 8.233315e-03 8.233330e-03 8.233063e-03
X 1.451081e-02 1.451079e-02 1.451068e-02
X 9.593307e-03 9.593601e-03 9.593626e-03
X 6.279648e-03 6.279206e-03 6.279325e-03
X 6.529501e-03 6.529723e-03 6.529603e-03
X 1.705171e-02 1.705159e-02 1.705127e-02
X 1.173788e-02 1.173789e-02 1.173778e-02
X 1.395261e-02 1.395273e-02 1.395240e-02
X 8.189950e-03 8.189887e-03 8.190339e-03
X 4.969302e-07 2.424256e-07 5.743578e-08
X 1.075409e-02 1.075399e-02 1.075412e-02
X 6.285331e-03 6.285141e-03 6.285123e-03
X 1.849665e-02 1.849678e-02 1.849659e-02
X 1.051137e-02 1.051128e-02 1.051130e-02
X 1.957111e-02 1.957128e-02 1.957100e-02
X 4.950738e-07 4.157465e-07 2.747190e-08
X 1.140403e-02 1.140393e-02 1.140396e-02
X 1.473168e-02 1.473155e-02 1.473159e-02
X 1.528922e-02 1.528933e-02 1.528918e-02
X 6.836949e-03 6.837187e-03 6.836958e-03
X 6.470587e-03 6.470795e-03 6.470546e-03
X 1.083283e-02 1.083278e-02 1.083277e-02
X 4.987252e-07 3.244900e-07 3.176760e-07
X 2.650034e-02 2.650029e-02 2.650033e-02
X 2.464233e-02 2.464223e-02 2.464236e-02
X 1.104315e-02 1.104312e-02 1.104355e-02
X 1.101705e-02 1.101694e-02 1.101685e-02
X 1.012221e-02 1.012214e-02 1.012238e-02
X 1.840573e-02 1.840575e-02 1.840552e-02
X 1.379790e-02 1.379760e-02 1.379794e-02
X 2.410751e-02 2.410753e-02 2.410731e-02
X 1.715962e-02 1.715974e-02 1.715977e-02
X 2.111087e-02 2.111111e-02 2.111100e-02
X 1.924667e-02 1.924636e-02 1.924633e-02
X 1.055029e-02 1.055054e-02 1.055040e-02
X 1.890269e-02 1.890279e-02 1.890257e-02
X 7.188431e-03 7.188319e-03 7.188282e-03
X 1.118757e-02 1.118755e-02 1.118753e-02
X 1.299760e-02 1.299725e-02 1.299757e-02
X 7.694187e-03 7.694063e-03 7.694316e-03
X 1.426133e-02 1.426156e-02 1.426121e-02
X 6.758391e-03 6.758439e-03 6.758521e-03
X 1.410461e-02 1.410472e-02 1.410441e-02
X 9.088102e-03 9.087986e-03 9.087971e-03
X 1.941209e-02 1.941233e-02 1.941229e-02
X 1.129173e-02 1.129137e-02 1.129181e-02
X 1.755151e-02 1.755174e-02 1.755158e-02
X 1.139171e-02 1.139159e-02 1.139156e-02
X 7.967891e-03 7.967997e-03 7.968039e-03
X 1.660069e-02 1.660044e-02 1.660069e-02
X 1.098295e-02 1.098285e-02 1.098293e-02
X 1.031237e-02 1.031229e-02 1.031229e-02
X 1.603154e-02 1.603191e-02 1.603178e-02
X 1.066979e-02 1.066942e-02 1.066972e-02
X 9.341848e-03 9.342127e-03 9.342108e-03
X 8.349942e-03 8.349778e-03 8.349889e-03
X 1.562918e-02 1.562888e-02 1.562924e-02
X 1.477600e-02 1.477605e-02 1.477615e-02
X 9.359553e-03 9.359272e-03 9.359243e-03
X 1.148391e-02 1.148421e-02 1.148403e-02
X 8.673631e-03 8.673780e-03 8.673597e-03
X 9.419384e-03 9.419379e-03 9.419342e-03
X 2.328711e-02 2.328715e-02 2.328700e-02
X 1.874819e-02 1.874808e-02 1.874818e-02
X 4.985559e-07 4.336684e-07 2.713399e-07
X 1.103570e-02 1.103566e-02 1.103556e-02
X 1.105762e-02 1.105723e-02 1.105737e-02
X 1.884487e-02 1.884487e-02 1.884488e-02
X 1.539091e-02 1.539102e-02 1.539099e-02
X 1.130534e-02 1.130556e-02 1.130548e-02
X 9.074684e-08 2.083741e-07 4.920837e-07
X 9.693317e-03 9.693513e-03 9.693701e-03
X 1.439036e-02 1.439029e-02 1.439019e-02
X 9.811330e-03 9.811600e-03 9.811625e-03
X 2.344671e-02 2.344655e-02 2.344673e-02
X 1.527014e-02 1.527038e-02 1.527051e-02
X 5.917797e-03 5.917687e-03 5.917745e-03
X 1.719696e-02 1.719671e-02 1.719704e-02
X 1.663087e-02 1.663116e-02 1.663106e-02
X 1.624824e-08 2.401085e-07 4.946594e-07
X 1.252216e-02 1.252199e-02 1.252215e-02
X 7.728977e-03 7.729143e-03 7.728976e-03
X 1.157009e-02 1.156979e-02 1.157019e-02
X 2.790953e-02 2.790953e-02 2.790939e-02
X 4.426739e-07 4.990024e-07 1.262352e-07
X 1.701474e-02 1.701484e-02 1.701475e-02
X 1.060707e-02 1.060717e-02 1.060699e-02
X 4.969478e-07 1.712434e-07 1.796431e-07
X 4.596944e-07 1.271672e-07 4.937186e-07
X 1.542094e-02 1.542069e-02 1.542089e-02
X 1.860948e-02 1.860960e-02 1.860916e-02
X 1.072854e-02 1.072885e-02 1.072864e-02
X 1.346866e-02 1.346861e-02 1.346905e-02
X 1.106702e-02 1.106695e-02 1.106680e-02
X 1.088983e-02 1.088999e-02 1.089013e-02
X 1.139076e-02 1.139085e-02 1.139110e-02
X 1.716204e-02 1.716207e-02 1.716184e-02
X 9.291964e-03 9.292239e-03 9.292349e-03
X 1.950249e-02 1.950256e-02 1.950234e-02
X 1.692526e-02 1.692534e-02 1.692522e-02
X 1.284261e-02 1.284261e-02 1.284224e-02
X 9.626731e-03 9.626570e-03 9.626590e-03
X 1.822785e-02 1.822795e-02 1.822794e-02
X 1.178776e-02 1.178800e-02 1.178797e-02
X 1.140879e-02 1.140889e-02 1.140876e-02
X 8.378659e-08 4.930521e-07 3.586155e-07
X 7.051996e-03 7.051717e-03 7.052098e-03
X 1.609887e-02 1.609905e-02 1.609921e-02
X 1.452424e-02 1.452460e-02 1.452443e-02
X 1.588279e-02 1.588279e-02 1.588267e-02
X 1.349224e-02 1.349196e-02 1.349240e-02
X 7.742455e-03 7.742437e-03 7.742656e-03
X 2.398168e-07 4.941639e-07 3.772731e-07
X 6.563227e-03 6.563167e-03 6.563367e-03
X 2.712826e-02 2.712827e-02 2.712821e-02
X 1.306148e-02 1.306139e-02 1.306129e-02
X 1.103268e-02 1.103234e-02 1.103254e-02
X 1.377140e-02 1.377149e-02 1.377173e-02
X 1.755195e-02 1.755172e-02 1.755156e-02
X 1.327320e-02 1.327307e-02 1.327337e-02
X 1.349896e-02 1.349878e-02 1.349884e-02
X 8.812947e-03 8.813061e-03 8.812959e-03
X 1.264900e-02 1.264911e-02 1.264893e-02
X 1.827121e-02 1.827139e-02 1.827131e-02
X 1.143958e-02 1.143922e-02 1.143940e-02
X 1.652016e-02 1.652051e-02 1.652039e-02
X 2.251275e-02 2.251278e-02 2.251244e-02
X 8.275423e-03 8.275447e-03 8.275845e-03
X 7.609108e-03 7.609009e-03 7.609122e-03
X 1.038020e-02 1.037991e-02 1.037991e-02
X 1.064114e-02 1.064105e-02 1.064084e-02
X 1.765403e-02 1.765398e-02 1.765411e-02
X 9.434655e-03 9.434681e-03 9.434500e-03
X 7.626826e-03 7.626469e-03 7.626468e-03
X 1.479265e-02 1.479251e-02 1.479253e-02
X 1.027822e-02 1.027807e-02 1.027833e-02
X 9.919426e-03 9.919436e-03 9.919678e-03
X 1.240429e-02 1.240422e-02 1.240384e-02
X 2.221855e-02 2.221873e-02 2.221846e-02
X 3.266481e-02 3.266511e-02 3.266505e-02
X 1.096257e-02 1.096252e-02 1.096248e-02
X 7.111561e-03 7.111285e-03 7.111723e-03
X 1.108673e-02 1.108633e-02 1.108671e-02
X 1.634254e-02 1.634258e-02 1.634288e-02
X 1.380042e-02 1.380072e-02 1.380083e-02
X 7.431115e-03 7.430787e-03 7.431026e-03
X 8.082794e-03 8.082856e-03 8.082946e-03
X 1.081658e-02 1.081656e-02 1.081638e-02
X 1.057404e-02 1.057443e-02 1.057403e-02
X 1.121237e-02 1.121241e-02 1.121231e-02
X 2.975047e-02 2.975049e-02 2.975048e-02
X 1.000830e-02 1.000846e-02 1.000828e-02
X 6.670236e-03 6.670653e-03 6.670393e-03
X 7.652425e-03 7.652335e-03 7.652625e-03
X 1.560913e-02 1.560936e-02 1.560930e-02
X 3.511409e-07 2.385210e-07 4.911293e-07
X 1.591010e-02 1.591041e-02 1.591035e-02
X 2.173746e-07 3.688582e-07 4.995100e-07
X 1.096972e-02 1.096965e-02 1.096964e-02
X 7.699533e-03 7.699251e-03 7.699412e-03
X 7.323549e-03 7.323598e-03 7.323662e-03
X 2.370726e-02 2.370736e-02 2.370761e-02
X 1.231926e-02 1.231951e-02 1.231968e-02
X 1.523289e-02 1.523282e-02 1.523282e-02
X 1.855295e-02 1.855313e-02 1.855311e-02
X 1.360266e-02 1.360225e-02 1.360248e-02
X 2.081403e-02 2.081413e-02 2.081379e-02
X 1.491731e-02 1.491744e-02 1.491745e-02
X 7.572550e-03 7.572204e-03 7.572280e-03
X 7.491807e-03 7.491967e-03 7.491716e-03
X 2.266011e-02 2.265979e-02 2.265981e-02
X 2.871107e-02 2.871110e-02 2.871122e-02
X 1.012269e-02 1.012261e-02 1.012284e-02
X 1.125739e-02 1.125739e-02 1.125764e-02
X 6.375094e-03 6.375432e-03 6.375102e-03
X 1.996586e-02 1.996542e-02 1.996544e-02
X 2.409283e-07 4.994250e-07 3.722686e-07
X 1.385251e-02 1.385218e-02 1.385214e-02
X 1.565226e-02 1.565231e-02 1.565249e-02
X 1.219142e-02 1.219138e-02 1.219159e-02
X 1.648040e-02 1.648037e-02 1.648023e-02
X 7.096326e-03 7.096254e-03 7.096137e-03
X 9.345418e-03 9.345455e-03 9.345194e-03
X 9.332277e-03 9.332264e-03 9.332479e-03
X 1.776234e-02 1.776227e-02 1.776242e-02
X 9.734126e-03 9.734112e-03 9.733866e-03
X 1.673831e-02 1.673824e-02 1.673853e-02
X 1.226540e-02 1.226540e-02 1.226570e-02
X 6.986612e-03 6.986834e-03 6.986635e-03
X 7.519364e-03 7.519471e-03 7.519595e-03
X 1.040749e-02 1.040778e-02 1.040734e-02
X 3.450051e-07 4.902600e-07 2.454435e-07
X 7.881391e-03 7.881579e-03 7.881703e-03
X 9.925735e-03 9.925801e-03 9.926078e-03
X 1.597819e-02 1.597818e-02 1.597787e-02
X 1.926980e-02 1.926951e-02 1.926947e-02
X 4.903920e-07 3.612900e-07 4.040421e-07
X 5.619081e-03 5.619041e-03 5.618691e-03
X 2.016473e-02 2.016477e-02 2.016494e-02
X 2.020656e-02 2.020661e-02 2.020653e-02
X 6.127944e-03 6.127806e-03 6.127874e-03
X 1.033043e-02 1.033058e-02 1.033046e-02
X 1.275668e-02 1.275650e-02 1.275645e-02
X 9.170516e-03 9.170507e-03 9.170779e-03
X 1.331667e-02 1.331660e-02 1.331653e-02
X 1.352851e-02 1.352876e-02 1.352866e-02
X 8.467876e-03 8.468225e-03 8.467894e-03
X 2.086318e-02 2.086304e-02 2.086288e-02
X 2.132606e-02 2.132633e-02 2.132605e-02
X 9.580345e-03 9.580630e-03 9.580320e-03
X 5.795219e-03 5.795187e-03 5.795358e-03
X 1.833857e-02 1.833838e-02 1.833862e-02
X 1.411266e-02 1.411276e-02 1.411291e-02
X 1.294505e-02 1.294505e-02 1.294509e-02
X 6.259886e-03 6.259856e-03 6.259518e-03
X 1.103993e-02 1.103956e-02 1.103984e-02
X 4.991855e-07 4.022998e-07 9.139258e-10
X 9.688514e-03 9.688264e-03 9.688409e-03
X 8.836246e-03 8.836058e-03 8.836103e-03
X 1.132287e-02 1.132244e-02 1.132248e-02
X 8.381025e-03 8.381292e-03 8.381135e-03
X 1.944647e-02 1.944652e-02 1.944667e-02
X 1.853505e-02 1.853493e-02 1.853486e-02
X 2.539383e-02 2.539384e-02 2.539362e-02
X 1.234472e-02 1.234481e-02 1.234503e-02
X 7.235504e-03 7.235596e-03 7.235848e-03
X 1.399692e-02 1.399693e-02 1.399671e-02
X 9.466313e-03 9.466227e-03 9.466273e-03
X 7.309926e-03 7.309787e-03 7.309828e-03
X 9.207504e-03 9.207793e-03 9.207549e-03
X 6.992112e-03 6.992215e-03 6.992372e-03
X 1.270516e-02 1.270510e-02 1.270504e-02
X 9.896045e-03 9.895982e-03 9.895880e-03
X 2.837833e-02 2.837849e-02 2.837814e-02
X 1.902367e-02 1.902372e-02 1.902409e-02
X 9.216170e-03 9.215841e-03 9.216254e-03
X 1.647240e-02 1.647238e-02 1.647215e-02
X 1.089220e-02 1.089204e-02 1.089214e-02
X 1.485856e-02 1.485849e-02 1.485856e-02
X 4.267154e-07 4.967171e-07 4.323094e-07
X 1.041305e-02 1.041327e-02 1.041299e-02
X 1.036502e-02 1.036509e-02 1.036539e-02
X 1.867598e-02 1.867575e-02 1.867589e-02
X 2.723589e-02 2.723585e-02 2.723610e-02
X 1.272616e-02 1.272650e-02 1.272635e-02
X 1.022495e-02 1.022514e-02 1.022516e-02
X 1.836365e-02 1.836405e-02 1.836406e-02
X 9.053382e-03 9.053211e-03 9.053321e-03
X 7.441440e-03 7.441379e-03 7.441668e-03
X 6.449843e-03 6.449393e-03 6.449842e-03
X 1.605029e-02 1.605047e-02 1.605034e-02
X 2.337690e-02 2.337669e-02 2.337692e-02
X 1.042178e-02 1.042137e-02 1.042136e-02
X 1.842126e-02 1.842134e-02 1.842100e-02
X 2.048572e-02 2.048579e-02 2.048600e-02
X 8.865255e-03 8.865326e-03 8.864995e-03
X 1.356229e-02 1.356211e-02 1.356210e-02
X 1.425089e-02 1.425091e-02 1.425064e-02
X 1.296012e-02 1.295978e-02 1.296013e-02
X 1.895682e-02 1.895643e-02 1.895663e-02
X 9.156793e-03 9.157000e-03 9.157170e-03
X 1.364150e-02 1.364156e-02 1.364132e-02
X 1.177612e-02 1.177600e-02 1.177641e-02
X 8.113837e-03 8.113875e-03 8.113893e-03
X 7.384917e-03 7.384655e-03 7.385026e-03
X 1.705757e-02 1.705740e-02 1.705740e-02
X 7.093836e-03 7.093978e-03 7.093946e-03
X 1.632675e-02 1.632676e-02 1.632701e-02
X 2.208298e-02 2.208290e-02 2.208331e-02
X 1.134715e-02 1.134740e-02 1.134718e-02
X 8.273109e-03 8.273231e-03 8.273276e-03
X 1.527431e-02 1.527411e-02 1.527439e-02
X 1.039259e-02 1.039255e-02 1.039243e-02
X 1.365767e-02 1.365773e-02 1.365757e-02
X 1.189361e-02 1.189366e-02 1.189350e-02
X 6.336800e-03 6.337118e-03 6.336781e-03
X 1.173001e-02 1.172998e-02 1.173035e-02
X 1.240327e-02 1.240333e-02 1.240294e-02
X 7.998798e-03 7.998650e-03 7.998607e-03
X 1.246487e-02 1.246466e-02 1.246450e-02
X 7.870766e-03 7.870814e-03 7.870872e-03
X 2.527657e-02 2.527684e-02 2.527698e-02
X 1.143806e-02 1.143813e-02 1.143806e-02
X 1.512068e-02 1.512081e-02 1.512050e-02
X 1.123182e-02 1.123196e-02 1.123200e-02
X 2.725351e-02 2.725322e-02 2.725322e-02
X 2.025357e-02 2.025334e-02 2.025344e-02
X 2.777458e-02 2.777415e-02 2.777440e-02
X 8.576202e-03 8.575982e-03 8.576328e-03
X 1.468675e-02 1.468661e-02 1.468674e-02
X 2.099572e-02 2.099582e-02 2.099561e-02
X 9.872369e-03 9.872183e-03 9.872077e-03
X 7.724597e-03 7.724597e-03 7.724497e-03
X 5.739355e-03 5.739455e-03 5.739635e-03
X 8.521811e-03 8.521791e-03 8.521515e-03
X 1.219479e-02 1.219490e-02 1.219493e-02
X 9.234816e-03 9.234762e-03 9.234717e-03
X 7.561761e-03 7.561489e-03 7.561642e-03
X 1.630156e-02 1.630166e-02 1.630140e-02
X 9.189848e-03 9.189947e-03 9.190034e-03
X 7.019756e-03 7.019824e-03 7.020007e-03
X 1.243928e-02 1.243927e-02 1.243917e-02
X 9.259115e-03 9.259170e-03 9.259293e-03
X 1.490345e-02 1.490376e-02 1.490380e-02
X 7.890954e-03 7.890817e-03 7.890889e-03
X 1.467253e-02 1.467267e-02 1.467293e-02
X 1.527396e-02 1.527368e-02 1.527400e-02
X 1.085128e-02 1.085089e-02 1.085118e-02
X 7.162202e-03 7.162194e-03 7.162165e-03
X 1.608548e-02 1.608567e-02 1.608541e-02
X 1.564384e-02 1.564370e-02 1.564379e-02
X 1.219409e-02 1.219399e-02 1.219393e-02
X 1.041118e-08 4.988896e-07 3.858299e-07
X 1.371211e-02 1.371212e-02 1.371228e-02
X 1.004854e-07 4.946839e-07 3.284151e-07
X 1.666744e-02 1.666761e-02 1.666745e-02
X 1.118560e-02 1.118554e-02 1.118600e-02
X 1.023871e-02 1.023857e-02 1.023859e-02
X 1.368009e-02 1.368006e-02 1.368042e-02
X 1.297608e-02 1.297634e-02 1.297632e-02
X 8.807563e-03 8.807753e-03 8.807571e-03
X 1.746420e-07 4.986461e-07 4.141956e-07
X 8.077775e-03 8.077446e-03 8.077794e-03
X 1.025405e-02 1.025413e-02 1.025406e-02
X 1.333623e-02 1.333591e-02 1.333623e-02
X 1.836444e-02 1.836440e-02 1.836405e-02
X 9.970551e-03 9.970737e-03 9.970862e-03
X 6.710479e-03 6.710229e-03 6.710406e-03
X 6.932034e-03 6.931807e-03 6.932013e-03
X 6.381418e-03 6.381106e-03 6.381226e-03
X 9.714926e-03 9.714772e-03 9.714818e-03
X 2.061022e-02 2.061042e-02 2.061048e-02
X 1.637925e-02 1.637925e-02 1.637938e-02
X 1.492611e-02 1.492601e-02 1.492610e-02
X 1.461409e-02 1.461385e-02 1.461421e-02
X 9.425075e-03 9.424793e-03 9.425156e-03
X 7.164144e-03 7.164264e-03 7.164257e-03
X 8.115097e-03 8.114970e-03 8.114866e-03
X 1.467603e-02 1.467618e-02 1.467624e-02
X 2.151822e-02 2.151786e-02 2.151792e-02
X 1.722163e-07 4.933794e-07 2.871283e-07
X 1.463281e-02 1.463248e-02 1.463263e-02
X 1.011105e-02 1.011102e-02 1.011075e-02
X 1.824466e-02 1.824443e-02 1.824450e-02
X 1.785817e-02 1.785796e-02 1.785808e-02
X 1.001901e-02 1.001888e-02 1.001902e-02
X 2.115493e-02 2.115485e-02 2.115487e-02
X 4.945403e-07 6.663079e-08 2.850021e-07
X 1.519214e-02 1.519207e-02 1.519226e-02
X 6.801238e-03 6.801199e-03 6.801227e-03
X 9.500293e-03 9.500447e-03 9.500359e-03
X 8.808857e-03 8.808991e-03 8.808778e-03
X 2.555490e-02 2.555473e-02 2.555479e-02
X 6.574165e-03 6.573993e-03 6.574167e-03
X 1.207600e-02 1.207599e-02 1.207568e-02
X 7.123309e-03 7.122951e-03 7.123140e-03
X 1.152816e-02 1.152825e-02 1.152808e-02
X 9.421434e-03 9.421633e-03 9.421743e-03
X 6.584275e-03 6.584515e-03 6.584267e-03
X 8.099268e-03 8.098844e-03 8.099166e-03
X 3.916792e-07 4.449989e-07 4.960330e-07
X 2.040200e-02 2.040189e-02 2.040196e-02
X 1.532336e-02 1.532322e-02 1.532323e-02
X 1.498529e-02 1.498530e-02 1.498557e-02
X 1.172966e-02 1.172949e-02 1.172967e-02
X 1.489476e-02 1.489444e-02 1.489462e-02
X 5.887348e-03 5.887099e-03 5.887167e-03
X 1.532245e-02 1.532273e-02 1.532278e-02
X 9.924762e-03 9.924800e-03 9.924491e-03
X 1.657740e-02 1.657750e-02 1.657739e-02
X 9.995390e-03 9.995505e-03 9.995337e-03
X 1.408152e-02 1.408171e-02 1.408137e-02
X 1.433669e-02 1.433652e-02 1.433681e-02
X 1.073123e-02 1.073156e-02 1.073112e-02
X 1.003415e-02 1.003421e-02 1.003414e-02
X 8.823269e-03 8.823464e-03 8.823564e-03
X 7.161269e-03 7.161260e-03 7.161438e-03
X 8.337088e-03 8.336869e-03 8.337025e-03
X 4.971521e-07 3.756208e-07 2.732576e-07
X 1.927767e-02 1.927782e-02 1.927805e-02
X 1.501103e-02 1.501088e-02 1.501121e-02
X 1.360449e-02 1.360443e-02 1.360464e-02
X 1.629892e-02 1.629899e-02 1.629897e-02
X 9.610548e-03 9.610532e-03 9.610407e-03
X 2.029725e-07 4.915278e-07 4.011838e-07
X 4.977162e-07 1.732687e-08 4.498659e-07
X 2.627178e-02 2.627165e-02 2.627155e-02
X 7.937666e-03 7.937731e-03 7.937827e-03
X 1.085062e-02 1.085077e-02 1.085075e-02
X 1.439911e-02 1.439892e-02 1.439892e-02
X 1.035048e-02 1.035050e-02 1.035040e-02
X 8.780156e-03 8.779947e-03 8.780271e-03
X 9.437295e-03 9.436831e-03 9.436906e-03
X 2.564801e-08 4.987937e-07 3.888498e-07
X 1.923457e-02 1.923460e-02 1.923467e-02
X 7.922242e-03 7.921959e-03 7.922321e-03
X 8.045326e-03 8.045316e-03 8.045566e-03
X 1.071414e-02 1.071380e-02 1.071389e-02
X 1.827691e-02 1.827661e-02 1.827690e-02
X 1.357441e-02 1.357446e-02 1.357466e-02
X 1.758771e-02 1.758791e-02 1.758781e-02
X 1.025549e-02 1.025531e-02 1.025549e-02